version 3
run General-0-20251220-11:06:20-3622
attr configname General
attr datetime 20251220-11:06:20
attr datetimef 20251220-110620
attr experiment General
attr inifile omnetpp.ini
attr iterationvars ""
attr iterationvarsd ""
attr iterationvarsf ""
attr measurement ""
attr network WirelessNetwork
attr processid 3622
attr repetition 0
attr replication #0
attr resultdir results
attr runnumber 0
attr seedset 0
config image-path ../../../inet/images:../../../veins/images
config description "Simple sim where two host communicate wirelessly"
config network WirelessNetwork
config sim-time-limit 60s
config *.host*.ipv4.arp.typename GlobalArp
config *.hostA.numApps 1
config *.hostA.app[0].typename UdpBasicApp
config *.hostA.app[0].destAddresses "\"hostB\""
config *.hostA.app[0].destPort 5000
config *.hostA.app[0].messageLength 1000B
config *.hostA.app[0].sendInterval exponential(12ms)
config *.hostA.app[0].packetName "\"UDPData\""
config *.hostB.numApps 1
config *.hostB.app[0].typename UdpSink
config *.hostB.app[0].localPort 5000
config *.host*.wlan[0].typename AckingWirelessInterface
config *.host*.wlan[0].mac.useAck false
config *.host*.wlan[0].mac.fullDuplex false
config *.host*.wlan[0].radio.transmitter.communicationRange 500m
config *.host*.wlan[0].radio.receiver.ignoreInterference true
config *.host*.wlan[0].mac.headerLength 23B
config *.host*.**.bitrate 1Mbps
config **.radio.displayCommunicationRange true
config *.visualizer.mediumVisualizer.displaySignals true
config *.visualizer.physicalLinkVisualizer.displayLinks true
config *.visualizer.physicalLinkVisualizer.packetFilter "\"UDPData*\""
config *.visualizer.mobilityVisualizer.displayVelocities true
config *.visualizer.mobilityVisualizer.displayMovementTrails true
config *.hostA.mobility.typename LinearMobility
config *.hostA.mobility.speed 12mps
config *.hostA.mobility.initialMovementHeading 200deg

vector 0 WirelessNetwork.hostA.wlan[0].queue queueLength:vector ETV
attr autoWarmupFilter false
attr interpolationmode sample-hold
attr recordingmode vector
attr source "warmup(atomic(constant0(packetPushEnded) + count(packetPushStarted) - count(packetPulled) - count(packetRemoved) - count(packetDropped)))"
attr title "queue length"
attr unit pk
vector 1 WirelessNetwork.hostA.wlan[0].queue queueBitLength:vector ETV
attr autoWarmupFilter false
attr interpolationmode sample-hold
attr recordingmode vector
attr source "warmup(atomic(constant0(packetPushEnded) + sum(packetLength(packetPushStarted)) - sum(packetLength(packetPulled)) - sum(packetLength(packetRemoved)) - sum(packetLength(packetDropped))))"
attr title "queue bit length"
attr unit b
vector 2 WirelessNetwork.hostA.udp passedUpPk:vector(count) ETV
attr interpolationmode none
attr recordingmode vector(count)
attr source packetSentToUpper
attr title "packets passed up, count"
vector 3 WirelessNetwork.hostA.udp droppedPkWrongPort:vector(count) ETV
attr interpolationmode none
attr recordingmode vector(count)
attr source packetDropReasonIsNoPortFound(packetDropped)
attr title "packets dropped (wrong port), count"
vector 4 WirelessNetwork.hostA.udp droppedPkBadChecksum:vector(count) ETV
attr interpolationmode none
attr recordingmode vector(count)
attr source packetDropReasonIsIncorrectlyReceived(packetDropped)
attr title "packets dropped (checksum error), count"
vector 5 WirelessNetwork.hostB.wlan[0].queue queueLength:vector ETV
attr autoWarmupFilter false
attr interpolationmode sample-hold
attr recordingmode vector
attr source "warmup(atomic(constant0(packetPushEnded) + count(packetPushStarted) - count(packetPulled) - count(packetRemoved) - count(packetDropped)))"
attr title "queue length"
attr unit pk
vector 6 WirelessNetwork.hostB.wlan[0].queue queueBitLength:vector ETV
attr autoWarmupFilter false
attr interpolationmode sample-hold
attr recordingmode vector
attr source "warmup(atomic(constant0(packetPushEnded) + sum(packetLength(packetPushStarted)) - sum(packetLength(packetPulled)) - sum(packetLength(packetRemoved)) - sum(packetLength(packetDropped))))"
attr title "queue bit length"
attr unit b
vector 7 WirelessNetwork.hostB.udp passedUpPk:vector(count) ETV
attr interpolationmode none
attr recordingmode vector(count)
attr source packetSentToUpper
attr title "packets passed up, count"
vector 8 WirelessNetwork.hostB.udp droppedPkWrongPort:vector(count) ETV
attr interpolationmode none
attr recordingmode vector(count)
attr source packetDropReasonIsNoPortFound(packetDropped)
attr title "packets dropped (wrong port), count"
vector 9 WirelessNetwork.hostB.udp droppedPkBadChecksum:vector(count) ETV
attr interpolationmode none
attr recordingmode vector(count)
attr source packetDropReasonIsIncorrectlyReceived(packetDropped)
attr title "packets dropped (checksum error), count"
vector 10 WirelessNetwork.hostA.wlan[0].radio radioMode:vector ETV
attr interpolationmode sample-hold
attr recordingmode vector
attr source radioModeChanged
attr title "Radio mode"
vector 11 WirelessNetwork.hostB.wlan[0].radio radioMode:vector ETV
attr interpolationmode sample-hold
attr recordingmode vector
attr source radioModeChanged
attr title "Radio mode"
vector 12 WirelessNetwork.hostA.wlan[0].radio receptionState:vector ETV
attr interpolationmode sample-hold
attr recordingmode vector
attr source receptionStateChanged
attr title "Radio reception state"
vector 13 WirelessNetwork.hostB.wlan[0].radio receptionState:vector ETV
attr interpolationmode sample-hold
attr recordingmode vector
attr source receptionStateChanged
attr title "Radio reception state"
vector 14 WirelessNetwork.hostA.app[0] packetSent:vector(packetBytes) ETV
attr interpolationmode none
attr recordingmode vector(packetBytes)
attr source packetSent
attr title "packets sent, packetBytes"
vector 15 WirelessNetwork.hostA.udp packetSent:vector(packetBytes) ETV
attr interpolationmode none
attr recordingmode vector(packetBytes)
attr source packetSent
attr title "packets sent, packetBytes"
vector 16 WirelessNetwork.hostA.wlan[0].queue incomingPacketLengths:vector ETV
attr interpolationmode none
attr recordingmode vector
attr source packetLength(packetPushStarted)
attr title "incoming packet lengths"
attr unit b
vector 17 WirelessNetwork.hostA.wlan[0].queue queueingTime:vector ETV
attr interpolationmode none
attr recordingmode vector
attr source queueingTime(packetPulled)
attr title "queueing times"
attr unit s
vector 18 WirelessNetwork.hostA.wlan[0].queue outgoingPacketLengths:vector ETV
attr interpolationmode none
attr recordingmode vector
attr source packetLength(packetPulled)
attr title "outgoing packet lengths"
attr unit b
vector 19 WirelessNetwork.hostA.wlan[0].mac rcvdPkFromHl:vector(packetBytes) ETV
attr interpolationmode none
attr recordingmode vector(packetBytes)
attr source packetReceivedFromUpper
attr title "packets received from higher layer, packetBytes"
vector 20 WirelessNetwork.hostA.wlan[0].radio transmissionState:vector ETV
attr interpolationmode sample-hold
attr recordingmode vector
attr source transmissionStateChanged
attr title "Radio transmission state"
vector 21 WirelessNetwork.hostA.wlan[0].mac sentDownPk:vector(packetBytes) ETV
attr interpolationmode none
attr recordingmode vector(packetBytes)
attr source packetSentToLower
attr title "packets sent to lower layer, packetBytes"
vector 22 WirelessNetwork.hostB.wlan[0].mac rcvdPkFromLl:vector(packetBytes) ETV
attr interpolationmode none
attr recordingmode vector(packetBytes)
attr source packetReceivedFromLower
attr title "packets received from lower layer, packetBytes"
vector 23 WirelessNetwork.hostB.wlan[0].mac passedUpPk:vector(packetBytes) ETV
attr interpolationmode none
attr recordingmode vector(packetBytes)
attr source packetSentToUpper
attr title "packets passed to higher layer, packetBytes"
vector 24 WirelessNetwork.hostB.udp packetReceived:vector(packetBytes) ETV
attr interpolationmode none
attr recordingmode vector(packetBytes)
attr source packetReceived
attr title "packets received, packetBytes"
vector 25 WirelessNetwork.hostB.app[0] packetReceived:vector(packetBytes) ETV
attr interpolationmode none
attr recordingmode vector(packetBytes)
attr source packetReceived
attr title "packets received, packetBytes"
vector 26 WirelessNetwork.hostB.app[0] endToEndDelay:vector ETV
attr interpolationmode none
attr recordingmode vector
attr source dataAge(packetReceived)
attr title "end-to-end delay"
attr unit s
vector 27 WirelessNetwork.hostB.app[0] rcvdPkSeqNo:vector ETV
attr interpolationmode none
attr recordingmode vector
attr source appPkSeqNo(packetReceived)
attr title "received packet sequence number"
vector 28 WirelessNetwork.hostA.wlan[0].queue incomingDataRate:vector ETV
attr interpolationmode linear
attr recordingmode vector
attr source throughput(packetPushStarted)
attr title "incoming datarate"
attr unit bps
vector 29 WirelessNetwork.hostA.wlan[0].queue outgoingDataRate:vector ETV
attr interpolationmode linear
attr recordingmode vector
attr source throughput(packetPulled)
attr title "outgoing datarate"
attr unit bps
vector 30 WirelessNetwork.hostB.app[0] throughput:vector ETV
attr recordingmode vector
attr source throughput(packetReceived)
attr title throughput
attr unit bps
0	0	0	0
0	0	0	0
0	0	0	0
0	0	0	0
0	0	0	0
0	8	0.022315250545	0
0	14	0.028927832385	1
0	15	0.030819250545	0
0	33	0.041385743993	0
0	39	0.048291974356	1
0	41	0.049889743993	0
0	60	0.07497426742	0
0	74	0.114753214779	0
0	80	0.120556440038	1
0	81	0.123257214779	0
0	99	0.139383193449	0
0	112	0.148415282809	0
0	125	0.158488477044	0
0	139	0.189667526074	0
0	145	0.19055175034	1
0	149	0.191645682653	2
0	153	0.191890789714	3
0	154	0.198171526074	2
0	163	0.206675526074	1
0	175	0.213340641675	2
0	176	0.215179526074	1
0	185	0.223683526074	0
0	197	0.231410052779	1
0	198	0.232187526074	0
0	218	0.255893823874	0
0	232	0.302036486304	0
0	245	0.321299360989	0
0	251	0.328726514505	1
0	252	0.329803360989	0
0	270	0.346924946193	0
0	277	0.348435439106	1
0	278	0.355428946193	0
0	289	0.360692621598	1
0	293	0.362549377764	2
0	294	0.363932946193	1
0	303	0.372436946193	0
0	323	0.3972824235	0
0	336	0.406136351001	0
0	342	0.412563139644	1
0	343	0.414640351001	0
0	355	0.41625050387	1
0	356	0.423144351001	0
0	375	0.434109561779	0
0	381	0.441418550857	1
0	383	0.442613561779	0
0	400	0.451502567324	0
0	406	0.451730190154	1
0	408	0.460006567324	0
0	420	0.463266761423	1
0	421	0.468510567324	0
0	433	0.474630721549	1
0	434	0.477014567324	0
0	452	0.486145297277	0
0	468	0.520680277532	0
0	480	0.534421944988	0
0	487	0.539768166929	1
0	488	0.542925944988	0
0	499	0.54666255581	1
0	500	0.551429944988	0
0	518	0.561015849403	0
0	525	0.561761232889	1
0	526	0.569519849403	0
0	538	0.5749481825	1
0	539	0.578023849403	0
0	558	0.588275351848	0
0	564	0.591109832321	1
0	568	0.592766176582	2
0	570	0.596779351848	1
0	581	0.597313720153	2
0	586	0.602738944876	3
0	587	0.605283351848	2
0	599	0.612872078398	3
0	600	0.613787351848	2
0	612	0.619799970128	3
0	613	0.622291351848	2
0	622	0.630795351848	1
0	631	0.639299351848	0
0	651	0.673253932282	0
0	657	0.67454555358	1
0	661	0.677357171805	2
0	665	0.67946813435	3
0	666	0.681757932282	2
0	674	0.690261932282	1
0	686	0.692173046931	2
0	690	0.69567801333	3
0	691	0.698765932282	2
0	704	0.703213312302	3
0	708	0.706576636404	4
0	709	0.707269932282	3
0	720	0.708654165878	4
0	725	0.710057630796	5
0	726	0.715773932282	4
0	738	0.722874497162	5
0	739	0.724277932282	4
0	750	0.724659044393	5
0	755	0.727285611551	6
0	756	0.732781932282	5
0	767	0.732805779044	6
0	769	0.741285932282	5
0	778	0.749789932282	4
0	790	0.753449758937	5
0	794	0.754675497515	6
0	795	0.758293932282	5
0	804	0.766797932282	4
0	813	0.775301932282	3
0	824	0.776513324546	4
0	829	0.77772574185	5
0	830	0.783805932282	4
0	839	0.792309932282	3
0	849	0.800813932282	2
0	858	0.809317932282	1
0	867	0.817821932282	0
0	879	0.822714119365	1
0	880	0.826325932282	0
0	892	0.830302158522	1
0	893	0.834829932282	0
0	913	0.875445285936	0
0	925	0.886587027899	0
0	939	0.902717971165	0
0	945	0.903197686754	1
0	950	0.907186609646	2
0	954	0.90872329083	3
0	955	0.911221971165	2
0	966	0.912937403903	3
0	970	0.91445406754	4
0	974	0.919046478926	5
0	975	0.919725971165	4
0	987	0.925465091435	5
0	991	0.926260660253	6
0	992	0.928229971165	5
0	1001	0.936733971165	4
0	1013	0.940410934578	5
0	1014	0.945237971165	4
0	1026	0.950444104962	5
0	1027	0.953741971165	4
0	1038	0.954145083043	5
0	1040	0.962245971165	4
0	1051	0.963034190448	5
0	1056	0.964217994149	6
0	1057	0.970749971165	5
0	1069	0.974512741842	6
0	1070	0.979253971165	5
0	1079	0.987757971165	4
0	1088	0.996261971165	3
0	1098	1.004765971165	2
0	1110	1.006303812986	3
0	1114	1.010906535555	4
0	1115	1.013269971165	3
0	1124	1.021773971165	2
0	1136	1.024116686476	3
0	1140	1.025812655039	4
0	1141	1.030277971165	3
0	1150	1.038781971165	2
0	1162	1.04093186076	3
0	1166	1.045031710764	4
0	1167	1.047285971165	3
0	1178	1.047459916027	4
0	1180	1.055789971165	3
0	1192	1.058057464531	4
0	1196	1.058301214037	5
0	1197	1.064293971165	4
0	1206	1.072797971165	3
0	1218	1.079490106906	4
0	1222	1.079546585392	5
0	1223	1.081301971165	4
0	1232	1.089805971165	3
0	1244	1.093138195096	4
0	1248	1.096914855026	5
0	1249	1.098309971165	4
0	1259	1.106813971165	3
0	1271	1.112859949511	4
0	1272	1.115317971165	3
0	1281	1.123821971165	2
0	1290	1.132325971165	1
0	1299	1.140829971165	0
0	1318	1.152161667644	0
0	1324	1.155593919314	1
0	1326	1.160665667644	0
0	1337	1.165894634928	1
0	1338	1.169169667644	0
0	1350	1.176653725377	1
0	1351	1.177673667644	0
0	1369	1.186844375116	0
0	1376	1.189873415031	1
0	1377	1.195348375116	0
0	1398	1.226500794914	0
0	1404	1.233612283243	1
0	1405	1.235004794914	0
0	1424	1.256093801801	0
0	1436	1.270520664608	0
0	1443	1.274756906207	1
0	1444	1.279024664608	0
0	1462	1.294927972662	0
0	1470	1.300988197635	1
0	1471	1.303431972662	0
0	1490	1.326542190388	0
0	1502	1.336988620304	0
0	1516	1.362606585704	0
0	1528	1.376759180908	0
0	1541	1.392262092134	0
0	1549	1.400611685665	1
0	1550	1.400766092134	0
0	1569	1.438117305957	0
0	1581	1.450510870085	0
0	1588	1.457127621967	1
0	1589	1.459014870085	0
0	1606	1.468316456532	0
0	1612	1.468549013908	1
0	1617	1.472856140498	2
0	1618	1.476820456532	1
0	1627	1.485324456532	0
0	1638	1.485807982882	1
0	1643	1.489919178378	2
0	1644	1.493828456532	1
0	1657	1.501467679047	2
0	1658	1.502332456532	1
0	1670	1.508187211888	2
0	1674	1.509934099629	3
0	1675	1.510836456532	2
0	1687	1.514184789216	3
0	1688	1.519340456532	2
0	1700	1.524311450887	3
0	1701	1.527844456532	2
0	1713	1.535036199827	3
0	1714	1.536348456532	2
0	1723	1.544852456532	1
0	1734	1.545285156655	2
0	1736	1.553356456532	1
0	1748	1.55799326928	2
0	1749	1.561860456532	1
0	1758	1.570364456532	0
0	1769	1.570663464584	1
0	1774	1.577438790597	2
0	1775	1.578868456532	1
0	1784	1.587372456532	0
0	1804	1.604662398509	0
0	1811	1.610160473116	1
0	1812	1.613166398509	0
0	1823	1.617030011733	1
0	1824	1.621670398509	0
0	1844	1.64372898762	0
0	1857	1.663419758555	0
0	1869	1.678023992499	0
0	1875	1.679291344223	1
0	1877	1.686527992499	0
0	1897	1.709522729784	0
0	1909	1.724554020083	0
0	1924	1.805738706322	0
0	1930	1.807681147363	1
0	1931	1.814242706322	0
0	1949	1.831992053168	0
0	1956	1.83411996007	1
0	1957	1.840496053168	0
0	1968	1.845591557157	1
0	1972	1.847177761672	2
0	1973	1.849000053168	1
0	1982	1.857504053168	0
0	2001	1.869784908311	0
0	2015	1.889545537527	0
0	2027	1.899648109068	0
0	2034	1.905922549429	1
0	2038	1.906782654041	2
0	2040	1.908152109068	1
0	2048	1.916656109068	0
0	2060	1.921127916836	1
0	2061	1.925160109068	0
0	2073	1.928379505698	1
0	2074	1.933664109068	0
0	2093	1.943743516144	0
0	2107	1.967896788978	0
0	2121	2.012416316081	0
0	2134	2.035655242931	0
0	2140	2.035796641714	1
0	2144	2.04115167556	2
0	2145	2.044159242931	1
0	2153	2.052663242931	0
0	2165	2.056863255928	1
0	2169	2.059122795631	2
0	2170	2.061167242931	1
0	2182	2.067956368831	2
0	2186	2.068626809466	3
0	2187	2.069671242931	2
0	2199	2.071304479963	3
0	2203	2.071528825608	4
0	2204	2.078175242931	3
0	2213	2.086679242931	2
0	2225	2.090469778273	3
0	2229	2.093511846735	4
0	2230	2.095183242931	3
0	2242	2.098595731951	4
0	2244	2.103687242931	3
0	2253	2.112191242931	2
0	2262	2.120695242931	1
0	2271	2.129199242931	0
0	2282	2.130182358302	1
0	2284	2.137703242931	0
0	2296	2.144807919942	1
0	2300	2.145196201598	2
0	2301	2.146207242931	1
0	2312	2.147355689697	2
0	2314	2.154711242931	1
0	2326	2.159013475594	2
0	2327	2.163215242931	1
0	2339	2.169344559234	2
0	2340	2.171719242931	1
0	2351	2.172604576078	2
0	2353	2.180223242931	1
0	2362	2.188727242931	0
0	2382	2.205260755149	0
0	2395	2.21668271164	0
0	2408	2.225887667495	0
0	2421	2.236584210418	0
0	2434	2.252301634874	0
0	2441	2.256788272825	1
0	2442	2.260805634874	0
0	2453	2.262882654297	1
0	2457	2.265708949178	2
0	2461	2.26818133376	3
0	2462	2.269309634874	2
0	2471	2.277813634874	1
0	2480	2.286317634874	0
0	2500	2.302850240863	0
0	2513	2.318994410062	0
0	2520	2.327085344898	1
0	2521	2.327498410062	0
0	2532	2.330181498065	1
0	2536	2.333703589888	2
0	2540	2.334420961443	3
0	2541	2.336002410062	2
0	2553	2.341259732227	3
0	2554	2.344506410062	2
0	2565	2.34574376976	3
0	2567	2.353010410062	2
0	2579	2.360046067004	3
0	2580	2.361514410062	2
0	2592	2.365739062488	3
0	2596	2.368114675312	4
0	2600	2.368414535552	5
0	2604	2.369249947605	6
0	2605	2.370018410062	5
0	2614	2.378522410062	4
0	2626	2.382900409671	5
0	2627	2.387026410062	4
0	2639	2.390155384291	5
0	2640	2.395530410062	4
0	2652	2.399384821904	5
0	2654	2.404034410062	4
0	2663	2.412538410062	3
0	2672	2.421042410062	2
0	2684	2.426622902093	3
0	2685	2.429546410062	2
0	2694	2.438050410062	1
0	2703	2.446554410062	0
0	2723	2.482298732409	0
0	2729	2.485232624674	1
0	2730	2.490802732409	0
0	2741	2.498287477877	1
0	2742	2.499306732409	0
0	2755	2.501954736699	1
0	2759	2.502205143322	2
0	2760	2.507810732409	1
0	2769	2.516314732409	0
0	2781	2.519249744789	1
0	2785	2.523877997118	2
0	2786	2.524818732409	1
0	2798	2.529681657768	2
0	2799	2.533322732409	1
0	2811	2.54033168091	2
0	2812	2.541826732409	1
0	2821	2.550330732409	0
0	2840	2.561669400952	0
0	2853	2.573567452467	0
0	2867	2.598297307358	0
0	2874	2.602132203216	1
0	2875	2.606801307358	0
0	2893	2.621328836518	0
0	2899	2.623793009743	1
0	2901	2.629832836518	0
0	2920	2.660431225778	0
0	2932	2.674388585179	0
0	2938	2.677301207103	1
0	2940	2.682892585179	0
0	2960	2.712634970432	0
0	2972	2.728385066348	0
0	2979	2.73190048385	1
0	2983	2.734779566083	2
0	2984	2.736889066348	1
0	2995	2.743542298066	2
0	2999	2.743854271008	3
0	3000	2.745393066348	2
0	3011	2.746644571229	3
0	3016	2.753278631677	4
0	3017	2.753897066348	3
0	3029	2.758902749389	4
0	3030	2.762401066348	3
0	3042	2.766376701106	4
0	3046	2.770279293322	5
0	3047	2.770905066348	4
0	3056	2.779409066348	3
0	3067	2.780884721194	4
0	3069	2.787913066348	3
0	3078	2.796417066348	2
0	3091	2.804813191609	3
0	3092	2.804921066348	2
0	3103	2.806313582688	3
0	3105	2.813425066348	2
0	3117	2.815055868801	3
0	3121	2.816755573219	4
0	3122	2.821929066348	3
0	3131	2.830433066348	2
0	3142	2.831897325301	3
0	3147	2.8379486845	4
0	3148	2.838937066348	3
0	3157	2.847441066348	2
0	3168	2.847949223388	3
0	3173	2.850378728552	4
0	3177	2.852256437797	5
0	3178	2.855945066348	4
0	3190	2.860290924887	5
0	3191	2.864449066348	4
0	3202	2.865564389573	5
0	3204	2.872953066348	4
0	3213	2.881457066348	3
0	3222	2.889961066348	2
0	3231	2.898465066348	1
0	3242	2.899412020954	2
0	3245	2.906969066348	1
0	3254	2.915473066348	0
0	3265	2.916806678271	1
0	3267	2.923977066348	0
0	3285	2.933378235419	0
0	3300	2.961464138947	0
0	3306	2.962509441946	1
0	3307	2.969968138947	0
0	3318	2.972150143098	1
0	3319	2.978472138947	0
0	3331	2.982688724043	1
0	3332	2.986976138947	0
0	3353	3.021910680853	0
0	3359	3.026056915858	1
0	3363	3.029363251102	2
0	3364	3.030414680853	1
0	3375	3.030631497191	2
0	3379	3.030830290324	3
0	3380	3.038918680853	2
0	3389	3.047422680853	1
0	3398	3.055926680853	0
0	3410	3.06266099251	1
0	3411	3.064430680853	0
0	3430	3.075961909561	0
0	3443	3.094415854135	0
0	3450	3.098386772709	1
0	3452	3.102919854135	0
0	3463	3.108981339248	1
0	3467	3.109774443376	2
0	3468	3.111423854135	1
0	3480	3.117752136371	2
0	3481	3.119927854135	1
0	3490	3.128431854135	0
0	3510	3.163280421768	0
0	3523	3.188379100639	0
0	3529	3.19333185904	1
0	3530	3.196883100639	0
0	3550	3.232438910766	0
0	3556	3.23560183612	1
0	3557	3.240942910766	0
0	3576	3.271388244226	0
0	3590	3.305427926547	0
0	3603	3.324693431704	0
0	3615	3.336638995424	0
0	3629	3.361524132981	0
0	3635	3.365685172626	1
0	3636	3.370028132981	0
0	3654	3.388366393003	0
0	3667	3.399910536122	0
0	3674	3.40007043906	1
0	3678	3.405188868804	2
0	3683	3.407112877938	3
0	3684	3.408414536122	2
0	3692	3.416918536122	1
0	3701	3.425422536122	0
0	3721	3.455208273796	0
0	3727	3.463017841904	1
0	3728	3.463712273796	0
0	3739	3.471273163646	1
0	3740	3.472216273796	0
0	3759	3.483515408701	0
0	3765	3.489032904514	1
0	3770	3.490799604962	2
0	3771	3.492019408701	1
0	3780	3.500523408701	0
0	3799	3.511519205519	0
0	3805	3.514045604977	1
0	3807	3.520023205519	0
0	3818	3.522638148793	1
0	3822	3.525686285333	2
0	3826	3.526921905698	3
0	3827	3.528527205519	2
0	3836	3.537031205519	1
0	3845	3.545535205519	0
0	3857	3.550704589791	1
0	3858	3.554039205519	0
0	3878	3.594011881851	0
0	3892	3.632891437454	0
0	3905	3.661336088421	0
0	3917	3.679185245473	0
0	3924	3.684047440061	1
0	3928	3.685062393962	2
0	3929	3.687689245473	1
0	3940	3.691338005806	2
0	3944	3.694509251376	3
0	3945	3.696193245473	2
0	3956	3.696214757513	3
0	3960	3.696873645984	4
0	3963	3.704697245473	3
0	3975	3.71239142029	4
0	3979	3.712529339293	5
0	3980	3.713201245473	4
0	3989	3.721705245473	3
0	4001	3.730195789189	4
0	4002	3.730209245473	3
0	4014	3.732102987345	4
0	4018	3.73309733462	5
0	4022	3.734223829187	6
0	4023	3.738713245473	5
0	4032	3.747217245473	4
0	4043	3.74760247825	5
0	4048	3.75098076652	6
0	4049	3.755721245473	5
0	4061	3.757528659097	6
0	4062	3.764225245473	5
0	4074	3.767308879068	6
0	4075	3.772729245473	5
0	4084	3.781233245473	4
0	4093	3.789737245473	3
0	4104	3.790949569855	4
0	4106	3.798241245473	3
0	4119	3.806530917482	4
0	4120	3.806745245473	3
0	4132	3.810312837827	4
0	4136	3.81200445244	5
0	4140	3.81268805083	6
0	4141	3.815249245473	5
0	4153	3.816995586651	6
0	4157	3.820643245362	7
0	4158	3.823753245473	6
0	4170	3.827952018826	7
0	4171	3.832257245473	6
0	4180	3.840761245473	5
0	4191	3.841748915479	6
0	4193	3.849265245473	5
0	4205	3.856022870495	6
0	4206	3.857769245473	5
0	4218	3.860023710556	6
0	4222	3.865758726406	7
0	4223	3.866273245473	6
0	4235	3.868156992861	7
0	4236	3.874777245473	6
0	4245	3.883281245473	5
0	4257	3.886801938885	6
0	4261	3.887504273672	7
0	4262	3.891785245473	6
0	4272	3.900289245473	5
0	4284	3.901832434119	6
0	4285	3.908793245473	5
0	4294	3.917297245473	4
0	4306	3.919931016899	5
0	4307	3.925801245473	4
0	4316	3.934305245473	3
0	4328	3.937959970424	4
0	4332	3.941563871387	5
0	4333	3.942809245473	4
0	4345	3.947181148826	5
0	4346	3.951313245473	4
0	4358	3.957810276578	5
0	4359	3.959817245473	4
0	4371	3.961633282753	5
0	4375	3.967193963083	6
0	4376	3.968321245473	5
0	4388	3.969827581014	6
0	4389	3.976825245473	5
0	4400	3.977218612419	6
0	4404	3.977766269013	7
0	4406	3.985329245473	6
0	4415	3.993833245473	5
0	4427	3.997067283202	6
0	4431	3.998028229473	7
0	4433	4.002337245473	6
0	4445	4.006806773543	7
0	4446	4.010841245473	6
0	4457	4.011204189045	7
0	4459	4.019345245473	6
0	4471	4.021544198947	7
0	4472	4.027849245473	6
0	4481	4.036353245473	5
0	4490	4.044857245473	4
0	4499	4.053361245473	3
0	4511	4.060001904902	4
0	4512	4.061865245473	3
0	4521	4.070369245473	2
0	4533	4.072448846031	3
0	4537	4.072880879988	4
0	4538	4.078873245473	3
0	4549	4.07963478241	4
0	4551	4.087377245473	3
0	4562	4.088195393804	4
0	4564	4.095881245473	3
0	4576	4.097414433906	4
0	4578	4.104385245473	3
0	4590	4.111139978455	4
0	4591	4.112889245473	3
0	4603	4.115042028901	4
0	4607	4.116697467684	5
0	4608	4.121393245473	4
0	4619	4.122681775678	5
0	4621	4.129897245473	4
0	4630	4.138401245473	3
0	4639	4.146905245473	2
0	4648	4.155409245473	1
0	4660	4.160275729553	2
0	4664	4.16276195174	3
0	4665	4.163913245473	2
0	4674	4.172417245473	1
0	4683	4.180921245473	0
0	4701	4.190880830901	0
0	4716	4.200298875136	0
0	4722	4.207624669276	1
0	4723	4.208802875136	0
0	4743	4.233273729561	0
0	4749	4.240636980078	1
0	4750	4.241777729561	0
0	4768	4.256092523779	0
0	4775	4.262202953621	1
0	4776	4.264596523779	0
0	4795	4.290329389311	0
0	4808	4.30438455365	0
0	4821	4.318817119056	0
0	4828	4.323582090456	1
0	4829	4.327321119056	0
0	4847	4.34054749041	0
0	4860	4.352676720367	0
0	4866	4.355970282631	1
0	4870	4.35807022321	2
0	4872	4.361180720367	1
0	4880	4.369684720367	0
0	4892	4.377168896684	1
0	4893	4.378188720367	0
0	4914	4.415547956405	0
0	4920	4.422900901743	1
0	4921	4.424051956405	0
0	4938	4.433628918575	0
0	4953	4.457028641517	0
0	4959	4.464361332252	1
0	4960	4.465532641517	0
0	4980	4.500768643121	0
0	4992	4.511057864352	0
0	5006	4.531686696093	0
0	5019	4.560428853566	0
0	5032	4.580711673023	0
0	5038	4.582795551782	1
0	5039	4.589215673023	0
0	5050	4.594690905851	1
0	5051	4.597719673023	0
0	5064	4.6007895393	1
0	5068	4.601566727613	2
0	5069	4.606223673023	1
0	5081	4.608187170964	2
0	5085	4.611779111553	3
0	5086	4.614727673023	2
0	5095	4.623231673023	1
0	5104	4.631735673023	0
0	5116	4.634467861406	1
0	5120	4.634874323669	2
0	5121	4.640239673023	1
0	5130	4.648743673023	0
0	5150	4.673199466141	0
0	5156	4.678468389968	1
0	5157	4.681703466141	0
0	5168	4.683762247697	1
0	5172	4.683959807105	2
0	5176	4.686418034311	3
0	5177	4.690207466141	2
0	5189	4.692573158213	3
0	5190	4.698711466141	2
0	5200	4.707215466141	1
0	5209	4.715719466141	0
0	5227	4.72436341736	0
0	5233	4.725622610328	1
0	5235	4.73286741736	0
0	5255	4.760493645572	0
0	5268	4.784929175819	0
0	5274	4.792194381199	1
0	5275	4.793433175819	0
0	5286	4.796941168404	1
0	5291	4.800120387656	2
0	5292	4.801937175819	1
0	5301	4.810441175819	0
0	5312	4.811557858115	1
0	5317	4.811961465166	2
0	5321	4.812150214651	3
0	5325	4.818870315131	4
0	5326	4.818945175819	3
0	5337	4.819716338511	4
0	5342	4.823199619492	5
0	5346	4.826199029292	6
0	5347	4.827449175819	5
0	5359	4.829702382153	6
0	5363	4.831388090756	7
0	5367	4.831533401697	8
0	5371	4.833005981785	9
0	5372	4.835953175819	8
0	5381	4.844457175819	7
0	5392	4.84456909414	8
0	5394	4.852961175819	7
0	5403	4.861465175819	6
0	5412	4.869969175819	5
0	5421	4.878473175819	4
0	5430	4.886977175819	3
0	5442	4.888483839562	4
0	5443	4.895481175819	3
0	5453	4.903985175819	2
0	5462	4.912489175819	1
0	5471	4.920993175819	0
0	5491	4.944167199513	0
0	5497	4.950479569062	1
0	5501	4.952614090156	2
0	5502	4.952671199513	1
0	5510	4.961175199513	0
0	5522	4.964832701102	1
0	5523	4.969679199513	0
0	5535	4.972920022433	1
0	5536	4.978183199513	0
0	5557	5.027493908655	0
0	5563	5.028304318538	1
0	5564	5.035997908655	0
0	5582	5.046651584987	0
0	5588	5.050734431622	1
0	5592	5.054050093937	2
0	5594	5.055155584987	1
0	5602	5.063659584987	0
0	5614	5.067084533671	1
0	5618	5.070473894215	2
0	5619	5.072163584987	1
0	5628	5.080667584987	0
0	5640	5.083628204947	1
0	5641	5.089171584987	0
0	5653	5.092368735823	1
0	5654	5.097675584987	0
0	5665	5.098990361283	1
0	5668	5.106179584987	0
0	5680	5.108698117625	1
0	5684	5.112758271049	2
0	5685	5.114683584987	1
0	5694	5.123187584987	0
0	5706	5.127471857596	1
0	5707	5.131691584987	0
0	5719	5.13390264314	1
0	5723	5.139268321971	2
0	5724	5.140195584987	1
0	5733	5.148699584987	0
0	5752	5.160437370677	0
0	5766	5.191515284423	0
0	5772	5.192080475676	1
0	5776	5.195257862956	2
0	5778	5.200019284423	1
0	5789	5.200399954206	2
0	5790	5.208523284423	1
0	5799	5.217027284423	0
0	5811	5.220646573671	1
0	5812	5.225531284423	0
0	5832	5.271442763227	0
0	5846	5.313117031698	0
0	5859	5.341357048915	0
0	5865	5.34557825754	1
0	5866	5.349861048915	0
0	5886	5.403534900516	0
0	5892	5.406977809661	1
0	5896	5.408321144155	2
0	5897	5.412038900516	1
0	5905	5.420542900516	0
0	5925	5.444500763421	0
0	5931	5.447690562009	1
0	5932	5.453004763421	0
0	5949	5.461735790769	0
0	5955	5.462457331199	1
0	5957	5.470239790769	0
0	5969	5.478200888172	1
0	5970	5.478743790769	0
0	5991	5.503817316906	0
0	5997	5.507633971448	1
0	5998	5.512321316906	0
0	6009	5.5133521613	1
0	6013	5.518978699168	2
0	6014	5.520825316906	1
0	6023	5.529329316906	0
0	6035	5.535556208126	1
0	6036	5.537833316906	0
0	6047	5.538814877626	1
0	6052	5.541077654317	2
0	6053	5.546337316906	1
0	6065	5.54823625332	2
0	6069	5.552593199402	3
0	6070	5.554841316906	2
0	6079	5.563345316906	1
0	6088	5.571849316906	0
0	6100	5.574523514616	1
0	6104	5.577781154213	2
0	6105	5.580353316906	1
0	6117	5.586156404799	2
0	6118	5.588857316906	1
0	6127	5.597361316906	0
0	6148	5.620445508973	0
0	6160	5.632506896756	0
0	6174	5.656741910795	0
0	6187	5.690544851555	0
0	6200	5.707217153638	0
0	6213	5.721647841775	0
0	6227	5.762939170346	0
0	6241	5.825160723422	0
0	6247	5.832374579179	1
0	6251	5.833256655708	2
0	6252	5.833664723422	1
0	6263	5.837413855638	2
0	6267	5.839397371786	3
0	6268	5.842168723422	2
0	6280	5.845882204157	3
0	6284	5.847571146022	4
0	6285	5.850672723422	3
0	6297	5.858690809226	4
0	6298	5.859176723422	3
0	6310	5.864481711808	4
0	6311	5.867680723422	3
0	6320	5.876184723422	2
0	6329	5.884688723422	1
0	6341	5.891571433297	2
0	6342	5.893192723422	1
0	6352	5.901696723422	0
0	6372	5.932798914007	0
0	6384	5.942298223142	0
0	6390	5.946154306776	1
0	6391	5.950802223142	0
0	6403	5.956918942945	1
0	6404	5.959306223142	0
0	6424	5.984167464234	0
0	6430	5.990432799887	1
0	6431	5.992671464234	0
0	6443	6.00007044115	1
0	6444	6.001175464234	0
0	6456	6.003874169709	1
0	6457	6.009679464234	0
0	6468	6.011167586878	1
0	6473	6.017331814237	2
0	6474	6.018183464234	1
0	6486	6.020758641283	2
0	6487	6.026687464234	1
0	6499	6.02921803314	2
0	6503	6.033677422198	3
0	6504	6.035191464234	2
0	6516	6.039279794321	3
0	6517	6.043695464234	2
0	6529	6.048212333458	3
0	6530	6.052199464234	2
0	6539	6.060703464234	1
0	6551	6.064876460744	2
0	6552	6.069207464234	1
0	6563	6.06974517687	2
0	6565	6.077711464234	1
0	6574	6.086215464234	0
0	6594	6.100694534439	0
0	6608	6.124488285402	0
0	6614	6.125087272631	1
0	6618	6.128597879845	2
0	6619	6.132992285402	1
0	6630	6.13568790249	2
0	6634	6.137014093009	3