version 3
run General-0-20260130-03:03:44-2258
attr configname General
attr datetime 20260130-03:03:44
attr datetimef 20260130-030344
attr experiment General
attr inifile omnetpp.ini
attr iterationvars ""
attr iterationvarsd ""
attr iterationvarsf ""
attr measurement ""
attr network Scenario
attr processid 2258
attr repetition 0
attr replication #0
attr resultdir results
attr runnumber 0
attr seedset 0
config image-path ../../../../../inet/images:../../../../../veins/images
config network Scenario
config sim-time-limit 60s
config debug-on-errors true
config cmdenv-express-mode true
config image-path ../../../../images
config Scenario.node[*].numUdpApps 1
config Scenario.node[*].udpApp[0].typename UDPBasicApp
config Scenario.node[*].udpApp[0].destAddresses "\"224.0.0.1\""
config Scenario.node[*].udpApp[0].multicastInterface "\"wlan0\""
config Scenario.node[*].udpApp[0].joinLocalMulticastGroups true
config Scenario.node[*].udpApp[0].localPort 9001
config Scenario.node[*].udpApp[0].destPort 9001
config Scenario.node[*].udpApp[0].messageLength 100B
config Scenario.node[*].udpApp[0].startTime "uniform(0s, 5s)"
config Scenario.node[*].udpApp[0].sendInterval 5s
config Scenario.node[*].wlan[0].mgmtType "\"Ieee80211MgmtAdhoc\""
config Scenario.node[*].wlan[0].bitrate 6Mbps
config Scenario.node[*].wlan[0].radio.transmitter.power 2mW
config Scenario.node[*].ac_wlan.interfaces "\"wlan0\""
config Scenario.node[*].ac_wlan.mcastGroups "\"224.0.0.1\""
config Scenario.node[*].mobilityType "\"VeinsInetMobility\""
config Scenario.node[*].mobility.constraintAreaMinX 0m
config Scenario.node[*].mobility.constraintAreaMinY 0m
config Scenario.node[*].mobility.constraintAreaMinZ 0m
config Scenario.node[*].mobility.constraintAreaMaxX 1000m
config Scenario.node[*].mobility.constraintAreaMaxY 1000m
config Scenario.node[*].mobility.constraintAreaMaxZ 0m
config Scenario.manager.updateInterval 0.1s
config Scenario.manager.host "\"localhost\""
config Scenario.manager.port 9999
config Scenario.manager.autoShutdown true
config Scenario.manager.launchConfig "xmldoc(\"square.launchd.xml\")"
config Scenario.manager.moduleType "\"vanet_tutorials.simulations.veins_inet3.examples.veins_inet.Car\""
config **.vector-recording true

vector 0 Scenario.node[0].wlan[0].mac.dcf frameSequenceActive:vector ETV
attr autoWarmupFilter false
attr interpolationmode sample-hold
attr recordingmode vector
attr source warmup(count(frameSequenceStarted)-count(frameSequenceFinished))
attr title "frame sequence active"
vector 1 Scenario.node[0].wlan[0].mac.dcf.channelAccess.pendingQueue queueLength:vector ETV
attr autoWarmupFilter false
attr interpolationmode sample-hold
attr recordingmode vector
attr source "warmup(atomic(constant0(packetPushEnded) + count(packetPushStarted) - count(packetPulled) - count(packetRemoved) - count(packetDropped)))"
attr title "queue length"
attr unit pk
vector 2 Scenario.node[0].wlan[0].mac.dcf.channelAccess.pendingQueue queueBitLength:vector ETV
attr autoWarmupFilter false
attr interpolationmode sample-hold
attr recordingmode vector
attr source "warmup(atomic(constant0(packetPushEnded) + sum(packetLength(packetPushStarted)) - sum(packetLength(packetPulled)) - sum(packetLength(packetRemoved)) - sum(packetLength(packetDropped))))"
attr title "queue bit length"
attr unit b
vector 3 Scenario.node[0].wlan[0].mac.dcf.channelAccess.inProgressFrames queueLength:vector ETV
attr autoWarmupFilter false
attr interpolationmode sample-hold
attr recordingmode vector
attr source "warmup(count(packetEnqueued) - count(packetDequeued))"
attr title "queue length"
vector 4 Scenario.node[0].wlan[0].mac.dcf.channelAccess.contention backoffActive:vector ETV
attr autoWarmupFilter false
attr interpolationmode sample-hold
attr recordingmode vector
attr source warmup(count(backoffStarted)-count(backoffStopped))
attr title "backoff active"
vector 5 Scenario.node[0].udp passedUpPk:vector(count) ETV
attr interpolationmode none
attr recordingmode vector(count)
attr source packetSentToUpper
attr title "packets passed up, count"
vector 6 Scenario.node[0].udp droppedPkWrongPort:vector(count) ETV
attr interpolationmode none
attr recordingmode vector(count)
attr source packetDropReasonIsNoPortFound(packetDropped)
attr title "packets dropped (wrong port), count"
vector 7 Scenario.node[0].udp droppedPkBadChecksum:vector(count) ETV
attr interpolationmode none
attr recordingmode vector(count)
attr source packetDropReasonIsIncorrectlyReceived(packetDropped)
attr title "packets dropped (checksum error), count"
vector 8 Scenario.node[0].wlan[0].radio radioMode:vector ETV
attr interpolationmode sample-hold
attr recordingmode vector
attr source radioModeChanged
attr title "Radio mode"
vector 9 Scenario.node[0].wlan[0].radio radioChannel:vector ETV
attr interpolationmode sample-hold
attr recordingmode vector
attr source radioChannelChanged
attr title "Radio channel"
vector 10 Scenario.node[0].wlan[0].radio receptionState:vector ETV
attr interpolationmode sample-hold
attr recordingmode vector
attr source receptionStateChanged
attr title "Radio reception state"
vector 11 Scenario.node[0].wlan[0].mac.dcf.channelAccess.contention stateChanged:vector ETV
attr enum IDLE,DEFER,IFS_AND_BACKOFF
attr interpolationmode none
attr recordingmode vector
attr title "contention state changed"
attr type enum
vector 12 Scenario.node[0].wlan[0].mac.dcf.recoveryProcedure contentionWindowChanged:vector ETV
attr interpolationmode sample-hold
attr recordingmode vector
attr title "contention window"
vector 13 Scenario.node[0].wlan[0].agent sentRequest:vector ETV
attr recordingmode vector
attr title "sent requests"
vector 14 Scenario.node[0].wlan[0].mac.dcf.channelAccess.pendingQueue incomingPacketLengths:vector ETV
attr interpolationmode none
attr recordingmode vector
attr source packetLength(packetPushStarted)
attr title "incoming packet lengths"
attr unit b
vector 15 Scenario.node[0].wlan[0].mac.dcf.channelAccess.pendingQueue incomingDataRate:vector ETV
attr interpolationmode linear
attr recordingmode vector
attr source throughput(packetPushStarted)
attr title "incoming datarate"
attr unit bps
vector 16 Scenario.node[0].wlan[0].mac.dcf.channelAccess.contention backoffPeriodGenerated:vector ETV
attr interpolationmode none
attr recordingmode vector
attr title "backoff periods"
vector 17 Scenario.node[0].wlan[0].mac.dcf.channelAccess.pendingQueue queueingTime:vector ETV
attr interpolationmode none
attr recordingmode vector
attr source queueingTime(packetPulled)
attr title "queueing times"
attr unit s
vector 18 Scenario.node[0].wlan[0].mac.dcf.channelAccess.pendingQueue outgoingPacketLengths:vector ETV
attr interpolationmode none
attr recordingmode vector
attr source packetLength(packetPulled)
attr title "outgoing packet lengths"
attr unit b
vector 19 Scenario.node[0].wlan[0].mac.dcf.channelAccess.pendingQueue outgoingDataRate:vector ETV
attr interpolationmode linear
attr recordingmode vector
attr source throughput(packetPulled)
attr title "outgoing datarate"
attr unit bps
vector 20 Scenario.node[0].wlan[0].mac.dcf datarateSelected:vector ETV
attr interpolationmode none
attr recordingmode vector
attr title "datarates selected"
vector 21 Scenario.node[0].wlan[0].mac packetSentToLower:vector(packetBytes) ETV
attr interpolationmode none
attr recordingmode vector(packetBytes)
attr title "packets sent to lower layer, packetBytes"
vector 22 Scenario.node[0].wlan[0].radio transmissionState:vector ETV
attr interpolationmode sample-hold
attr recordingmode vector
attr source transmissionStateChanged
attr title "Radio transmission state"
vector 23 Scenario.node[0].wlan[0].mac.dcf packetSentToPeer:vector(packetBytes) ETV
attr interpolationmode none
attr recordingmode vector(packetBytes)
attr title "packets sent, packetBytes"
vector 24 Scenario.node[0].wlan[0].mac.dcf packetSentToPeerMulticast:vector(packetBytes) ETV
attr interpolationmode none
attr recordingmode vector(packetBytes)
attr source ieee80211Multicast(packetSentToPeer)
attr title "packets sent: multicast, packetBytes"
vector 25 Scenario.node[0].wlan[0].mac.dcf packetSentToPeerBroadcast:vector(packetBytes) ETV
attr interpolationmode none
attr recordingmode vector(packetBytes)
attr source ieee80211Broadcast(packetSentToPeer)
attr title "packets sent: broadcast , packetBytes"
vector 26 Scenario.node[0].wlan[0].mac.dcf packetSentToPeerWithoutRetry:vector(packetBytes) ETV
attr interpolationmode none
attr recordingmode vector(packetBytes)
attr source ieee80211NotRetry(packetSentToPeer)
attr title "packets sent: without retry, packetBytes"
vector 27 Scenario.node[0].wlan[0].mac.dcf.channelAccess.inProgressFrames queueingTime:vector ETV
attr interpolationmode none
attr recordingmode vector
attr source queueingTime(packetDequeued)
attr title "queueing times"
vector 28 Scenario.node[0].wlan[0].agent dropConfirm:vector ETV
attr recordingmode vector
attr title "dropped confirms"
vector 29 Scenario.node[1].wlan[0].mac.dcf frameSequenceActive:vector ETV
attr autoWarmupFilter false
attr interpolationmode sample-hold
attr recordingmode vector
attr source warmup(count(frameSequenceStarted)-count(frameSequenceFinished))
attr title "frame sequence active"
vector 30 Scenario.node[1].wlan[0].mac.dcf.channelAccess.pendingQueue queueLength:vector ETV
attr autoWarmupFilter false
attr interpolationmode sample-hold
attr recordingmode vector
attr source "warmup(atomic(constant0(packetPushEnded) + count(packetPushStarted) - count(packetPulled) - count(packetRemoved) - count(packetDropped)))"
attr title "queue length"
attr unit pk
vector 31 Scenario.node[1].wlan[0].mac.dcf.channelAccess.pendingQueue queueBitLength:vector ETV
attr autoWarmupFilter false
attr interpolationmode sample-hold
attr recordingmode vector
attr source "warmup(atomic(constant0(packetPushEnded) + sum(packetLength(packetPushStarted)) - sum(packetLength(packetPulled)) - sum(packetLength(packetRemoved)) - sum(packetLength(packetDropped))))"
attr title "queue bit length"
attr unit b
vector 32 Scenario.node[1].wlan[0].mac.dcf.channelAccess.inProgressFrames queueLength:vector ETV
attr autoWarmupFilter false
attr interpolationmode sample-hold
attr recordingmode vector
attr source "warmup(count(packetEnqueued) - count(packetDequeued))"
attr title "queue length"
vector 33 Scenario.node[1].wlan[0].mac.dcf.channelAccess.contention backoffActive:vector ETV
attr autoWarmupFilter false
attr interpolationmode sample-hold
attr recordingmode vector
attr source warmup(count(backoffStarted)-count(backoffStopped))
attr title "backoff active"
vector 34 Scenario.node[1].udp passedUpPk:vector(count) ETV
attr interpolationmode none
attr recordingmode vector(count)
attr source packetSentToUpper
attr title "packets passed up, count"
vector 35 Scenario.node[1].udp droppedPkWrongPort:vector(count) ETV
attr interpolationmode none
attr recordingmode vector(count)
attr source packetDropReasonIsNoPortFound(packetDropped)
attr title "packets dropped (wrong port), count"
vector 36 Scenario.node[1].udp droppedPkBadChecksum:vector(count) ETV
attr interpolationmode none
attr recordingmode vector(count)
attr source packetDropReasonIsIncorrectlyReceived(packetDropped)
attr title "packets dropped (checksum error), count"
vector 37 Scenario.node[1].wlan[0].radio radioMode:vector ETV
attr interpolationmode sample-hold
attr recordingmode vector
attr source radioModeChanged
attr title "Radio mode"
vector 38 Scenario.node[1].wlan[0].radio radioChannel:vector ETV
attr interpolationmode sample-hold
attr recordingmode vector
attr source radioChannelChanged
attr title "Radio channel"
vector 39 Scenario.node[1].wlan[0].radio receptionState:vector ETV
attr interpolationmode sample-hold
attr recordingmode vector
attr source receptionStateChanged
attr title "Radio reception state"
vector 40 Scenario.node[1].wlan[0].mac.dcf.channelAccess.contention stateChanged:vector ETV
attr enum IDLE,DEFER,IFS_AND_BACKOFF
attr interpolationmode none
attr recordingmode vector
attr title "contention state changed"
attr type enum
vector 41 Scenario.node[1].wlan[0].mac.dcf.recoveryProcedure contentionWindowChanged:vector ETV
attr interpolationmode sample-hold
attr recordingmode vector
attr title "contention window"
vector 42 Scenario.node[1].wlan[0].agent sentRequest:vector ETV
attr recordingmode vector
attr title "sent requests"
vector 43 Scenario.node[1].wlan[0].mac.dcf.channelAccess.pendingQueue incomingPacketLengths:vector ETV
attr interpolationmode none
attr recordingmode vector
attr source packetLength(packetPushStarted)
attr title "incoming packet lengths"
attr unit b
vector 44 Scenario.node[1].wlan[0].mac.dcf.channelAccess.pendingQueue incomingDataRate:vector ETV
attr interpolationmode linear
attr recordingmode vector
attr source throughput(packetPushStarted)
attr title "incoming datarate"
attr unit bps
vector 45 Scenario.node[1].wlan[0].mac.dcf.channelAccess.contention backoffPeriodGenerated:vector ETV
attr interpolationmode none
attr recordingmode vector
attr title "backoff periods"
vector 46 Scenario.node[1].wlan[0].mac.dcf.channelAccess.pendingQueue queueingTime:vector ETV
attr interpolationmode none
attr recordingmode vector
attr source queueingTime(packetPulled)
attr title "queueing times"
attr unit s
vector 47 Scenario.node[1].wlan[0].mac.dcf.channelAccess.pendingQueue outgoingPacketLengths:vector ETV
attr interpolationmode none
attr recordingmode vector
attr source packetLength(packetPulled)
attr title "outgoing packet lengths"
attr unit b
vector 48 Scenario.node[1].wlan[0].mac.dcf.channelAccess.pendingQueue outgoingDataRate:vector ETV
attr interpolationmode linear
attr recordingmode vector
attr source throughput(packetPulled)
attr title "outgoing datarate"
attr unit bps
vector 49 Scenario.node[1].wlan[0].mac.dcf datarateSelected:vector ETV
attr interpolationmode none
attr recordingmode vector
attr title "datarates selected"
vector 50 Scenario.node[1].wlan[0].mac packetSentToLower:vector(packetBytes) ETV
attr interpolationmode none
attr recordingmode vector(packetBytes)
attr title "packets sent to lower layer, packetBytes"
vector 51 Scenario.node[1].wlan[0].radio transmissionState:vector ETV
attr interpolationmode sample-hold
attr recordingmode vector
attr source transmissionStateChanged
attr title "Radio transmission state"
vector 52 Scenario.node[1].wlan[0].mac.dcf packetSentToPeer:vector(packetBytes) ETV
attr interpolationmode none
attr recordingmode vector(packetBytes)
attr title "packets sent, packetBytes"
vector 53 Scenario.node[1].wlan[0].mac.dcf packetSentToPeerMulticast:vector(packetBytes) ETV
attr interpolationmode none
attr recordingmode vector(packetBytes)
attr source ieee80211Multicast(packetSentToPeer)
attr title "packets sent: multicast, packetBytes"
vector 54 Scenario.node[1].wlan[0].mac.dcf packetSentToPeerBroadcast:vector(packetBytes) ETV
attr interpolationmode none
attr recordingmode vector(packetBytes)
attr source ieee80211Broadcast(packetSentToPeer)
attr title "packets sent: broadcast , packetBytes"
vector 55 Scenario.node[1].wlan[0].mac.dcf packetSentToPeerWithoutRetry:vector(packetBytes) ETV
attr interpolationmode none
attr recordingmode vector(packetBytes)
attr source ieee80211NotRetry(packetSentToPeer)
attr title "packets sent: without retry, packetBytes"
vector 56 Scenario.node[1].wlan[0].mac.dcf.channelAccess.inProgressFrames queueingTime:vector ETV
attr interpolationmode none
attr recordingmode vector
attr source queueingTime(packetDequeued)
attr title "queueing times"
vector 57 Scenario.node[1].wlan[0].agent dropConfirm:vector ETV
attr recordingmode vector
attr title "dropped confirms"
vector 58 Scenario.node[2].wlan[0].mac.dcf frameSequenceActive:vector ETV
attr autoWarmupFilter false
attr interpolationmode sample-hold
attr recordingmode vector
attr source warmup(count(frameSequenceStarted)-count(frameSequenceFinished))
attr title "frame sequence active"
vector 59 Scenario.node[2].wlan[0].mac.dcf.channelAccess.pendingQueue queueLength:vector ETV
attr autoWarmupFilter false
attr interpolationmode sample-hold
attr recordingmode vector
attr source "warmup(atomic(constant0(packetPushEnded) + count(packetPushStarted) - count(packetPulled) - count(packetRemoved) - count(packetDropped)))"
attr title "queue length"
attr unit pk
vector 60 Scenario.node[2].wlan[0].mac.dcf.channelAccess.pendingQueue queueBitLength:vector ETV
attr autoWarmupFilter false
attr interpolationmode sample-hold
attr recordingmode vector
attr source "warmup(atomic(constant0(packetPushEnded) + sum(packetLength(packetPushStarted)) - sum(packetLength(packetPulled)) - sum(packetLength(packetRemoved)) - sum(packetLength(packetDropped))))"
attr title "queue bit length"
attr unit b
vector 61 Scenario.node[2].wlan[0].mac.dcf.channelAccess.inProgressFrames queueLength:vector ETV
attr autoWarmupFilter false
attr interpolationmode sample-hold
attr recordingmode vector
attr source "warmup(count(packetEnqueued) - count(packetDequeued))"
attr title "queue length"
vector 62 Scenario.node[2].wlan[0].mac.dcf.channelAccess.contention backoffActive:vector ETV
attr autoWarmupFilter false
attr interpolationmode sample-hold
attr recordingmode vector
attr source warmup(count(backoffStarted)-count(backoffStopped))
attr title "backoff active"
vector 63 Scenario.node[2].udp passedUpPk:vector(count) ETV
attr interpolationmode none
attr recordingmode vector(count)
attr source packetSentToUpper
attr title "packets passed up, count"
vector 64 Scenario.node[2].udp droppedPkWrongPort:vector(count) ETV
attr interpolationmode none
attr recordingmode vector(count)
attr source packetDropReasonIsNoPortFound(packetDropped)
attr title "packets dropped (wrong port), count"
vector 65 Scenario.node[2].udp droppedPkBadChecksum:vector(count) ETV
attr interpolationmode none
attr recordingmode vector(count)
attr source packetDropReasonIsIncorrectlyReceived(packetDropped)
attr title "packets dropped (checksum error), count"
vector 66 Scenario.node[2].wlan[0].radio radioMode:vector ETV
attr interpolationmode sample-hold
attr recordingmode vector
attr source radioModeChanged
attr title "Radio mode"
vector 67 Scenario.node[2].wlan[0].radio radioChannel:vector ETV
attr interpolationmode sample-hold
attr recordingmode vector
attr source radioChannelChanged
attr title "Radio channel"
vector 68 Scenario.node[2].wlan[0].radio receptionState:vector ETV
attr interpolationmode sample-hold
attr recordingmode vector
attr source receptionStateChanged
attr title "Radio reception state"
vector 69 Scenario.node[2].wlan[0].mac.dcf.channelAccess.contention stateChanged:vector ETV
attr enum IDLE,DEFER,IFS_AND_BACKOFF
attr interpolationmode none
attr recordingmode vector
attr title "contention state changed"
attr type enum
vector 70 Scenario.node[2].wlan[0].mac.dcf.recoveryProcedure contentionWindowChanged:vector ETV
attr interpolationmode sample-hold
attr recordingmode vector
attr title "contention window"
vector 71 Scenario.node[2].wlan[0].agent sentRequest:vector ETV
attr recordingmode vector
attr title "sent requests"
vector 72 Scenario.node[2].wlan[0].mac.dcf.channelAccess.pendingQueue incomingPacketLengths:vector ETV
attr interpolationmode none
attr recordingmode vector
attr source packetLength(packetPushStarted)
attr title "incoming packet lengths"
attr unit b
vector 73 Scenario.node[2].wlan[0].mac.dcf.channelAccess.pendingQueue incomingDataRate:vector ETV
attr interpolationmode linear
attr recordingmode vector
attr source throughput(packetPushStarted)
attr title "incoming datarate"
attr unit bps
vector 74 Scenario.node[2].wlan[0].mac.dcf.channelAccess.contention backoffPeriodGenerated:vector ETV
attr interpolationmode none
attr recordingmode vector
attr title "backoff periods"
vector 75 Scenario.node[2].wlan[0].mac.dcf.channelAccess.pendingQueue queueingTime:vector ETV
attr interpolationmode none
attr recordingmode vector
attr source queueingTime(packetPulled)
attr title "queueing times"
attr unit s
vector 76 Scenario.node[2].wlan[0].mac.dcf.channelAccess.pendingQueue outgoingPacketLengths:vector ETV
attr interpolationmode none
attr recordingmode vector
attr source packetLength(packetPulled)
attr title "outgoing packet lengths"
attr unit b
vector 77 Scenario.node[2].wlan[0].mac.dcf.channelAccess.pendingQueue outgoingDataRate:vector ETV
attr interpolationmode linear
attr recordingmode vector
attr source throughput(packetPulled)
attr title "outgoing datarate"
attr unit bps
vector 78 Scenario.node[2].wlan[0].mac.dcf datarateSelected:vector ETV
attr interpolationmode none
attr recordingmode vector
attr title "datarates selected"
vector 79 Scenario.node[2].wlan[0].mac packetSentToLower:vector(packetBytes) ETV
attr interpolationmode none
attr recordingmode vector(packetBytes)
attr title "packets sent to lower layer, packetBytes"
vector 80 Scenario.node[2].wlan[0].radio transmissionState:vector ETV
attr interpolationmode sample-hold
attr recordingmode vector
attr source transmissionStateChanged
attr title "Radio transmission state"
vector 81 Scenario.node[2].wlan[0].mac.dcf packetSentToPeer:vector(packetBytes) ETV
attr interpolationmode none
attr recordingmode vector(packetBytes)
attr title "packets sent, packetBytes"
vector 82 Scenario.node[2].wlan[0].mac.dcf packetSentToPeerMulticast:vector(packetBytes) ETV
attr interpolationmode none
attr recordingmode vector(packetBytes)
attr source ieee80211Multicast(packetSentToPeer)
attr title "packets sent: multicast, packetBytes"
vector 83 Scenario.node[2].wlan[0].mac.dcf packetSentToPeerBroadcast:vector(packetBytes) ETV
attr interpolationmode none
attr recordingmode vector(packetBytes)
attr source ieee80211Broadcast(packetSentToPeer)
attr title "packets sent: broadcast , packetBytes"
vector 84 Scenario.node[2].wlan[0].mac.dcf packetSentToPeerWithoutRetry:vector(packetBytes) ETV
attr interpolationmode none
attr recordingmode vector(packetBytes)
attr source ieee80211NotRetry(packetSentToPeer)
attr title "packets sent: without retry, packetBytes"
vector 85 Scenario.node[2].wlan[0].mac.dcf.channelAccess.inProgressFrames queueingTime:vector ETV
attr interpolationmode none
attr recordingmode vector
attr source queueingTime(packetDequeued)
attr title "queueing times"
vector 86 Scenario.node[2].wlan[0].agent dropConfirm:vector ETV
attr recordingmode vector
attr title "dropped confirms"
0	2	0.1	0
0	2	0.1	0
0	13	0.453279723227	1
0	16	0.453317723227	0
0	30	0.703279723227	1
0	33	0.703317723227	0
0	46	0.953279723227	1
0	49	0.953317723227	0
0	63	1.203279723227	1
0	66	1.203317723227	0
0	79	1.453279723227	1
0	82	1.453317723227	0
0	96	1.703279723227	1
0	99	1.703317723227	0
0	112	1.953279723227	1
0	115	1.953317723227	0
0	129	2.203279723227	1
0	132	2.203317723227	0
0	145	2.453279723227	1
0	148	2.453317723227	0
0	162	2.703279723227	1
0	165	2.703317723227	0
0	178	2.953279723227	1
0	181	2.953317723227	0
0	195	3.203279723227	1
0	198	3.203317723227	0
0	211	3.453279723227	1
0	214	3.453317723227	0
0	228	3.703279723227	1
0	231	3.703317723227	0
0	244	3.953279723227	1
0	247	3.953317723227	0
0	261	4.203279723227	1
0	264	4.203317723227	0
0	277	4.453279723227	1
0	280	4.453317723227	0
0	294	4.703279723227	1
0	297	4.703317723227	0
0	310	4.953279723227	1
0	313	4.953317723227	0
0	331	5.203279723227	1
0	335	5.203317723227	0
0	365	5.453279723227	1
0	369	5.453317723227	0
0	400	5.703279723227	1
0	404	5.703317723227	0
0	434	5.953279723227	1
0	438	5.953317723227	0
0	469	6.203279723227	1
0	473	6.203317723227	0
0	503	6.453279723227	1
0	507	6.453317723227	0
0	538	6.703279723227	1
0	542	6.703317723227	0
0	572	6.953279723227	1
0	576	6.953317723227	0
0	607	7.203279723227	1
0	611	7.203317723227	0
0	641	7.453279723227	1
0	645	7.453317723227	0
0	676	7.703279723227	1
0	680	7.703317723227	0
0	710	7.953279723227	1
0	714	7.953317723227	0
0	745	8.203279723227	1
0	749	8.203317723227	0
0	779	8.453279723227	1
0	783	8.453317723227	0
0	814	8.703279723227	1
0	818	8.703317723227	0
0	848	8.953279723227	1
0	852	8.953317723227	0
0	883	9.203279723227	1
0	887	9.203317723227	0
0	917	9.453279723227	1
0	921	9.453317723227	0
0	952	9.703279723227	1
0	956	9.703317723227	0
0	986	9.953279723227	1
0	990	9.953317723227	0
0	1021	10.203279723227	1
0	1026	10.203317723227	0
0	1063	10.453279723227	1
0	1068	10.453317723227	0
0	1120	10.703279723227	1
0	1125	10.703317723227	0
0	1176	10.953279723227	1
0	1181	10.953317723227	0
0	1233	11.203279723227	1
0	1238	11.203317723227	0
0	1289	11.453279723227	1
0	1294	11.453317723227	0
0	1346	11.703279723227	1
0	1351	11.703317723227	0
0	1402	11.953279723227	1
0	1407	11.953317723227	0
0	1459	12.203279723227	1
0	1464	12.203317723227	0
0	1515	12.453279723227	1
0	1520	12.453317723227	0
0	1572	12.703279723227	1
0	1577	12.703317723227	0
0	1628	12.953279723227	1
0	1633	12.953317723227	0
0	1685	13.203279723227	1
0	1690	13.203317723227	0
0	1741	13.453279723227	1
0	1746	13.453317723227	0
0	1798	13.703279723227	1
0	1803	13.703317723227	0
0	1854	13.953279723227	1
0	1859	13.953317723227	0
0	1911	14.203279723227	1
0	1916	14.203317723227	0
0	1967	14.453279723227	1
0	1972	14.453317723227	0
0	2024	14.703279723227	1
0	2029	14.703317723227	0
0	2080	14.953279723227	1
0	2085	14.953317723227	0
0	2137	15.203279723227	1
0	2142	15.203317723227	0
0	2193	15.453279723227	1
0	2198	15.453317723227	0
0	2250	15.703279723227	1
0	2255	15.703317723227	0
0	2306	15.953279723227	1
0	2311	15.953317723227	0
0	2363	16.203279723227	1
0	2368	16.203317723227	0
0	2419	16.453279723227	1
0	2424	16.453317723227	0
0	2476	16.703279723227	1
0	2481	16.703317723227	0
0	2532	16.953279723227	1
0	2537	16.953317723227	0
0	2589	17.203279723227	1
0	2594	17.203317723227	0
0	2645	17.453279723227	1
0	2650	17.453317723227	0
0	2702	17.703279723227	1
0	2707	17.703317723227	0
0	2758	17.953279723227	1
0	2763	17.953317723227	0
0	2815	18.203279723227	1
0	2820	18.203317723227	0
0	2871	18.453279723227	1
0	2876	18.453317723227	0
0	2928	18.703279723227	1
0	2933	18.703317723227	0
0	2984	18.953279723227	1
0	2989	18.953317723227	0
0	3041	19.203279723227	1
0	3046	19.203317723227	0
0	3097	19.453279723227	1
0	3102	19.453317723227	0
0	3154	19.703279723227	1
0	3159	19.703317723227	0
0	3210	19.953279723227	1
0	3215	19.953317723227	0
0	3267	20.203279723227	1
0	3272	20.203317723227	0
0	3323	20.453279723227	1
0	3328	20.453317723227	0
0	3380	20.703279723227	1
0	3385	20.703317723227	0
0	3436	20.953279723227	1
0	3441	20.953317723227	0
0	3493	21.203279723227	1
0	3498	21.203317723227	0
0	3549	21.453279723227	1
0	3554	21.453317723227	0
0	3606	21.703279723227	1
0	3611	21.703317723227	0
0	3662	21.953279723227	1
0	3667	21.953317723227	0
0	3719	22.203279723227	1
0	3724	22.203317723227	0
0	3775	22.453279723227	1
0	3780	22.453317723227	0
0	3832	22.703279723227	1
0	3837	22.703317723227	0
0	3888	22.953279723227	1
0	3893	22.953317723227	0
0	3945	23.203279723227	1
0	3950	23.203317723227	0
0	4001	23.453279723227	1
0	4006	23.453317723227	0
1	2	0.1	0
1	2	0.1	0
1	2	0.1	0
1	2	0.1	0
1	2	0.1	0
1	11	0.453279723227	1
1	13	0.453279723227	0
1	28	0.703279723227	1
1	30	0.703279723227	0
1	44	0.953279723227	1
1	46	0.953279723227	0
1	61	1.203279723227	1
1	63	1.203279723227	0
1	77	1.453279723227	1
1	79	1.453279723227	0
1	94	1.703279723227	1
1	96	1.703279723227	0
1	110	1.953279723227	1
1	112	1.953279723227	0
1	127	2.203279723227	1
1	129	2.203279723227	0
1	143	2.453279723227	1
1	145	2.453279723227	0
1	160	2.703279723227	1
1	162	2.703279723227	0
1	176	2.953279723227	1
1	178	2.953279723227	0
1	193	3.203279723227	1
1	195	3.203279723227	0
1	209	3.453279723227	1
1	211	3.453279723227	0
1	226	3.703279723227	1
1	228	3.703279723227	0
1	242	3.953279723227	1
1	244	3.953279723227	0
1	259	4.203279723227	1
1	261	4.203279723227	0
1	275	4.453279723227	1
1	277	4.453279723227	0
1	292	4.703279723227	1
1	294	4.703279723227	0
1	308	4.953279723227	1
1	310	4.953279723227	0
1	329	5.203279723227	1
1	331	5.203279723227	0
1	363	5.453279723227	1
1	365	5.453279723227	0
1	398	5.703279723227	1
1	400	5.703279723227	0
1	432	5.953279723227	1
1	434	5.953279723227	0
1	467	6.203279723227	1
1	469	6.203279723227	0
1	501	6.453279723227	1
1	503	6.453279723227	0
1	536	6.703279723227	1
1	538	6.703279723227	0
1	570	6.953279723227	1
1	572	6.953279723227	0
1	605	7.203279723227	1
1	607	7.203279723227	0
1	639	7.453279723227	1
1	641	7.453279723227	0
1	674	7.703279723227	1
1	676	7.703279723227	0
1	708	7.953279723227	1
1	710	7.953279723227	0
1	743	8.203279723227	1
1	745	8.203279723227	0
1	777	8.453279723227	1
1	779	8.453279723227	0
1	812	8.703279723227	1
1	814	8.703279723227	0
1	846	8.953279723227	1
1	848	8.953279723227	0
1	881	9.203279723227	1
1	883	9.203279723227	0
1	915	9.453279723227	1
1	917	9.453279723227	0
1	950	9.703279723227	1
1	952	9.703279723227	0
1	984	9.953279723227	1
1	986	9.953279723227	0
1	1019	10.203279723227	1
1	1021	10.203279723227	0
1	1061	10.453279723227	1
1	1063	10.453279723227	0
1	1118	10.703279723227	1
1	1120	10.703279723227	0
1	1174	10.953279723227	1
1	1176	10.953279723227	0
1	1231	11.203279723227	1
1	1233	11.203279723227	0
1	1287	11.453279723227	1
1	1289	11.453279723227	0
1	1344	11.703279723227	1
1	1346	11.703279723227	0
1	1400	11.953279723227	1
1	1402	11.953279723227	0
1	1457	12.203279723227	1
1	1459	12.203279723227	0
1	1513	12.453279723227	1
1	1515	12.453279723227	0
1	1570	12.703279723227	1
1	1572	12.703279723227	0
1	1626	12.953279723227	1
1	1628	12.953279723227	0
1	1683	13.203279723227	1
1	1685	13.203279723227	0
1	1739	13.453279723227	1
1	1741	13.453279723227	0
1	1796	13.703279723227	1
1	1798	13.703279723227	0
1	1852	13.953279723227	1
1	1854	13.953279723227	0
1	1909	14.203279723227	1
1	1911	14.203279723227	0
1	1965	14.453279723227	1
1	1967	14.453279723227	0
1	2022	14.703279723227	1
1	2024	14.703279723227	0
1	2078	14.953279723227	1
1	2080	14.953279723227	0
1	2135	15.203279723227	1
1	2137	15.203279723227	0
1	2191	15.453279723227	1
1	2193	15.453279723227	0
1	2248	15.703279723227	1
1	2250	15.703279723227	0
1	2304	15.953279723227	1
1	2306	15.953279723227	0
1	2361	16.203279723227	1
1	2363	16.203279723227	0
1	2417	16.453279723227	1
1	2419	16.453279723227	0
1	2474	16.703279723227	1
1	2476	16.703279723227	0
1	2530	16.953279723227	1
1	2532	16.953279723227	0
1	2587	17.203279723227	1
1	2589	17.203279723227	0